LAMMPS data /home/cgarcia/Programs/replicate_polymer_topology/forcefields/trappe-ua_PEToxvaerd.xml PE_final_residues_noH_replicate.top

408       atoms
406       bonds
404       angles
402       dihedrals
0         impropers

2         atom types
2         bond types
2         angle types
2         dihedral types
0         improper types

   -5.13000    51.17300   xlo xhi
  -24.80000    31.50300   ylo yhi
   -0.98000   145.65400   zlo zhi
    0.00000     0.00000     0.00000 xy xz yz

Masses

1            15.035   # CH3_sp3
2            14.027   # CH2_sp3

Atoms

1        1      1     0.0000    -3.9700    60.3600    35.3400 #CH3_sp3 
2        1      2     0.0000    -5.1300    60.3800    34.4400 #CH2_sp3 
3        1      2     0.0000    -4.8100    61.3800    33.2800 #CH2_sp3 
4        1      2     0.0000    -3.8000    60.8900    32.2400 #CH2_sp3 
5        1      2     0.0000    -4.1900    59.5600    31.6100 #CH2_sp3 
6        1      2     0.0000    -2.9800    58.9300    30.9800 #CH2_sp3 
7        1      2     0.0000    -3.2400    57.5800    30.2500 #CH2_sp3 
8        1      2     0.0000    -1.9400    56.9800    29.6400 #CH2_sp3 
9        1      2     0.0000    -1.1200    56.2000    30.6900 #CH2_sp3 
10       1      2     0.0000     0.3100    55.9800    30.1300 #CH2_sp3 
11       1      2     0.0000     1.2400    54.8500    30.7500 #CH2_sp3 
12       1      2     0.0000     2.7400    54.8900    30.2500 #CH2_sp3 
13       1      2     0.0000     2.7000    53.9700    29.0200 #CH2_sp3 
14       1      2     0.0000     4.1500    53.6500    28.6000 #CH2_sp3 
15       1      2     0.0000     4.8900    52.3100    28.9900 #CH2_sp3 
16       1      2     0.0000     5.0600    52.3100    30.5200 #CH2_sp3 
17       1      2     0.0000     3.7200    51.9900    31.2800 #CH2_sp3 
18       1      2     0.0000     3.8700    51.9300    32.8800 #CH2_sp3 
19       1      2     0.0000     4.8600    50.9600    33.5100 #CH2_sp3 
20       1      2     0.0000     4.7000    49.4600    33.3500 #CH2_sp3 
21       1      2     0.0000     6.0000    48.6300    33.5500 #CH2_sp3 
22       1      2     0.0000     5.7500    47.1600    33.0800 #CH2_sp3 
23       1      2     0.0000     6.9100    46.2000    33.5800 #CH2_sp3 
24       1      2     0.0000     8.3000    46.7100    33.2400 #CH2_sp3 
25       1      2     0.0000     9.5000    45.6500    33.3400 #CH2_sp3 
26       1      2     0.0000    10.8600    46.1400    32.7200 #CH2_sp3 
27       1      2     0.0000    11.6300    44.9500    32.0200 #CH2_sp3 
28       1      2     0.0000    13.1200    45.3700    31.6500 #CH2_sp3 
29       1      2     0.0000    14.0300    44.1800    31.1600 #CH2_sp3 
30       1      2     0.0000    15.5400    44.5800    31.1500 #CH2_sp3 
31       1      2     0.0000    16.4200    43.5400    30.3600 #CH2_sp3 
32       1      2     0.0000    16.5400    42.1400    30.9100 #CH2_sp3 
33       1      2     0.0000    16.7000    41.9300    32.3800 #CH2_sp3 
34       1      2     0.0000    16.8300    40.3900    32.6300 #CH2_sp3 
35       1      2     0.0000    17.1100    39.8000    33.9500 #CH2_sp3 
36       1      2     0.0000    17.1400    38.2900    33.9000 #CH2_sp3 
37       1      2     0.0000    17.6800    37.5500    35.2100 #CH2_sp3 
38       1      2     0.0000    17.2100    36.1500    35.2800 #CH2_sp3 
39       1      2     0.0000    17.4100    35.4300    33.8800 #CH2_sp3 
40       1      2     0.0000    18.8300    34.9200    33.8000 #CH2_sp3 
41       1      2     0.0000    19.0000    33.7000    32.8900 #CH2_sp3 
42       1      2     0.0000    20.4100    33.2700    33.0700 #CH2_sp3 
43       1      2     0.0000    20.8100    32.1400    32.0600 #CH2_sp3 
44       1      2     0.0000    20.7300    32.6100    30.5900 #CH2_sp3 
45       1      2     0.0000    21.0700    31.7400    29.4100 #CH2_sp3 
46       1      2     0.0000    20.3200    31.9500    28.0500 #CH2_sp3 
47       1      2     0.0000    20.3400    30.5900    27.3500 #CH2_sp3 
48       1      2     0.0000    20.0300    30.3200    25.8500 #CH2_sp3 
49       1      2     0.0000    20.5300    28.9400    25.4500 #CH2_sp3 
50       1      2     0.0000    20.3100    28.7100    23.9500 #CH2_sp3 
51       1      2     0.0000    20.8300    27.3500    23.5300 #CH2_sp3 
52       1      2     0.0000    20.3600    26.8300    22.1800 #CH2_sp3 
53       1      2     0.0000    20.8200    25.3600    21.8500 #CH2_sp3 
54       1      2     0.0000    20.5600    25.0400    20.3600 #CH2_sp3 
55       1      2     0.0000    21.2100    23.7100    19.9700 #CH2_sp3 
56       1      2     0.0000    20.6700    23.0700    18.7300 #CH2_sp3 
57       1      2     0.0000    21.7300    22.3300    17.8600 #CH2_sp3 
58       1      2     0.0000    21.1800    21.4700    16.6600 #CH2_sp3 
59       1      2     0.0000    20.1100    22.1600    15.8300 #CH2_sp3 
60       1      2     0.0000    19.8500    21.4100    14.4700 #CH2_sp3 
61       1      2     0.0000    18.9500    20.1700    14.7400 #CH2_sp3 
62       1      2     0.0000    18.9400    19.1200    13.6500 #CH2_sp3 
63       1      2     0.0000    17.6300    18.3100    13.8300 #CH2_sp3 
64       1      2     0.0000    17.5100    17.0900    12.9500 #CH2_sp3 
65       1      2     0.0000    16.1600    16.4600    12.8900 #CH2_sp3 
66       1      2     0.0000    15.9000    15.3200    11.8400 #CH2_sp3 
67       1      2     0.0000    16.3800    13.9600    12.2400 #CH2_sp3 
68       1      2     0.0000    17.9200    13.8500    12.0200 #CH2_sp3 
69       1      2     0.0000    18.5000    14.1700    10.5700 #CH2_sp3 
70       1      2     0.0000    19.9800    14.3600    10.6500 #CH2_sp3 
71       1      2     0.0000    20.7400    14.0400     9.3300 #CH2_sp3 
72       1      2     0.0000    22.2300    14.0900     9.3100 #CH2_sp3 
73       1      2     0.0000    22.9200    15.4400     9.3200 #CH2_sp3 
74       1      2     0.0000    22.8100    16.6000     8.2300 #CH2_sp3 
75       1      2     0.0000    21.5600    17.4200     8.2800 #CH2_sp3 
76       1      2     0.0000    21.8000    18.7500     9.0600 #CH2_sp3 
77       1      2     0.0000    22.2000    18.3600    10.4800 #CH2_sp3 
78       1      2     0.0000    22.1300    19.4800    11.5000 #CH2_sp3 
79       1      2     0.0000    23.1200    20.6600    11.3900 #CH2_sp3 
80       1      2     0.0000    22.9800    21.6500    12.5800 #CH2_sp3 
81       1      2     0.0000    23.9900    22.8900    12.5900 #CH2_sp3 
82       1      2     0.0000    23.7400    23.8900    13.6800 #CH2_sp3 
83       1      2     0.0000    24.5400    25.1200    13.5100 #CH2_sp3 
84       1      2     0.0000    24.1100    26.1200    12.4000 #CH2_sp3 
85       1      2     0.0000    24.8100    27.5000    12.5700 #CH2_sp3 
86       1      2     0.0000    24.4200    28.4800    11.4800 #CH2_sp3 
87       1      2     0.0000    25.5600    29.1200    10.6700 #CH2_sp3 
88       1      2     0.0000    24.8000    29.7300     9.5200 #CH2_sp3 
89       1      2     0.0000    25.7500    30.2900     8.4400 #CH2_sp3 
90       1      2     0.0000    26.4600    29.2400     7.5700 #CH2_sp3 
91       1      2     0.0000    27.5200    29.8300     6.7800 #CH2_sp3 
92       1      2     0.0000    28.2000    28.6800     6.0500 #CH2_sp3 
93       1      2     0.0000    29.2500    29.0500     4.9600 #CH2_sp3 
94       1      2     0.0000    30.3300    30.2100     5.4000 #CH2_sp3 
95       1      2     0.0000    30.9900    29.9200     6.7600 #CH2_sp3 
96       1      2     0.0000    31.8000    28.6100     6.8900 #CH2_sp3 
97       1      2     0.0000    32.6000    28.6100     8.2400 #CH2_sp3 
98       1      2     0.0000    33.7500    27.6300     8.4800 #CH2_sp3 
99       1      2     0.0000    33.3400    26.1900     8.1200 #CH2_sp3 
100      1      2     0.0000    34.4700    25.1500     8.3800 #CH2_sp3 
101      1      2     0.0000    35.5400    25.0400     7.3500 #CH2_sp3 
102      1      2     0.0000    35.9000    23.5300     6.8700 #CH2_sp3 
103      1      2     0.0000    36.9500    22.9100     7.8400 #CH2_sp3 
104      1      2     0.0000    37.7300    21.5800     7.3400 #CH2_sp3 
105      1      2     0.0000    38.1200    20.6900     8.5200 #CH2_sp3 
106      1      2     0.0000    37.1400    19.6400     8.9000 #CH2_sp3 
107      1      2     0.0000    37.4900    18.7200    10.1400 #CH2_sp3 
108      1      2     0.0000    38.3400    17.5200     9.8500 #CH2_sp3 
109      1      2     0.0000    39.4200    17.2600    10.9700 #CH2_sp3 
110      1      2     0.0000    40.3200    16.0500    10.6600 #CH2_sp3 
111      1      2     0.0000    41.0700    16.2000     9.3200 #CH2_sp3 
112      1      2     0.0000    41.8600    15.0000     9.0000 #CH2_sp3 
113      1      2     0.0000    42.4900    14.8700     7.6100 #CH2_sp3 
114      1      2     0.0000    43.6200    13.7800     7.5700 #CH2_sp3 
115      1      2     0.0000    44.5100    13.8700     6.2900 #CH2_sp3 
116      1      2     0.0000    45.8200    14.7500     6.6500 #CH2_sp3 
117      1      2     0.0000    46.5500    15.6000     5.7600 #CH2_sp3 
118      1      2     0.0000    47.7800    16.2700     6.3000 #CH2_sp3 
119      1      2     0.0000    48.0800    17.7100     5.6700 #CH2_sp3 
120      1      2     0.0000    49.3400    18.4900     5.8800 #CH2_sp3 
121      1      2     0.0000    49.5200    19.6000     4.8900 #CH2_sp3 
122      1      2     0.0000    50.7900    20.5300     5.2200 #CH2_sp3 
123      1      2     0.0000    51.1300    21.5000     4.0800 #CH2_sp3 
124      1      2     0.0000    52.0800    22.5900     4.6700 #CH2_sp3 
125      1      2     0.0000    52.2700    23.7300     3.6900 #CH2_sp3 
126      1      2     0.0000    52.7000    23.2200     2.2300 #CH2_sp3 
127      1      2     0.0000    53.8500    22.2100     2.0700 #CH2_sp3 
128      1      2     0.0000    53.9000    21.7800     0.5600 #CH2_sp3 
129      1      2     0.0000    52.7300    20.8200     0.1400 #CH2_sp3 
130      1      2     0.0000    52.4700    19.4900     0.8300 #CH2_sp3 
131      1      2     0.0000    51.6200    18.5000    -0.0800 #CH2_sp3 
132      1      2     0.0000    51.5400    17.1400     0.6400 #CH2_sp3 
133      1      2     0.0000    50.9000    15.9100    -0.1300 #CH2_sp3 
134      1      2     0.0000    51.5200    14.4900    -0.0200 #CH2_sp3 
135      1      2     0.0000    52.6500    14.1700    -0.9800 #CH2_sp3 
136      1      2     0.0000    53.3100    12.8000    -0.8600 #CH2_sp3 
137      1      2     0.0000    53.9700    12.4800     0.4900 #CH2_sp3 
138      1      2     0.0000    54.4900    10.9900     0.3900 #CH2_sp3 
139      1      2     0.0000    55.0300    10.5000     1.7400 #CH2_sp3 
140      1      2     0.0000    55.8000     9.0800     1.6400 #CH2_sp3 
141      1      2     0.0000    54.9000     7.9900     1.1100 #CH2_sp3 
142      1      2     0.0000    55.5400     6.6200     1.3800 #CH2_sp3 
143      1      2     0.0000    54.5100     5.4500     1.2500 #CH2_sp3 
144      1      2     0.0000    55.0300     3.9600     1.4600 #CH2_sp3 
145      1      2     0.0000    56.0100     3.7400     2.5900 #CH2_sp3 
146      1      2     0.0000    56.5100     2.3000     2.8500 #CH2_sp3 
147      1      2     0.0000    57.2700     1.6300     1.7400 #CH2_sp3 
148      1      2     0.0000    58.1500     0.5700     2.3100 #CH2_sp3 
149      1      2     0.0000    58.8400    -0.3700     1.2800 #CH2_sp3 
150      1      2     0.0000    59.5000    -1.6000     2.0200 #CH2_sp3 
151      1      2     0.0000    60.5900    -2.5300     1.3500 #CH2_sp3 
152      1      2     0.0000    61.5500    -3.2600     2.3500 #CH2_sp3 
153      1      2     0.0000    62.8600    -2.5600     2.3100 #CH2_sp3 
154      1      2     0.0000    64.1000    -3.1600     2.8500 #CH2_sp3 
155      1      2     0.0000    64.5300    -3.1000     4.3700 #CH2_sp3 
156      1      2     0.0000    65.9700    -3.7100     4.6500 #CH2_sp3 
157      1      2     0.0000    66.5200    -3.6800     6.0700 #CH2_sp3 
158      1      2     0.0000    66.0900    -4.8100     6.9900 #CH2_sp3 
159      1      2     0.0000    66.6100    -4.4800     8.3600 #CH2_sp3 
160      1      2     0.0000    66.1900    -5.4800     9.4800 #CH2_sp3 
161      1      2     0.0000    66.6600    -5.2100    10.8800 #CH2_sp3 
162      1      2     0.0000    66.7500    -6.3200    11.8900 #CH2_sp3 
163      1      2     0.0000    67.0700    -5.8000    13.2800 #CH2_sp3 
164      1      2     0.0000    67.2700    -6.9700    14.2900 #CH2_sp3 
165      1      2     0.0000    67.5000    -6.4700    15.7800 #CH2_sp3 
166      1      2     0.0000    68.1700    -7.5500    16.5900 #CH2_sp3 
167      1      2     0.0000    67.8600    -7.4100    18.1000 #CH2_sp3 
168      1      2     0.0000    68.6200    -6.2300    18.9300 #CH2_sp3 
169      1      2     0.0000    67.9900    -4.8800    19.2000 #CH2_sp3 
170      1      2     0.0000    66.4500    -4.8400    19.6100 #CH2_sp3 
171      1      2     0.0000    66.3200    -5.5900    20.9900 #CH2_sp3 
172      1      2     0.0000    64.9100    -5.8500    21.6100 #CH2_sp3 
173      1      2     0.0000    64.9800    -5.8300    23.1100 #CH2_sp3 
174      1      2     0.0000    63.6400    -5.8500    23.8200 #CH2_sp3 
175      1      2     0.0000    62.8100    -4.6300    23.6600 #CH2_sp3 
176      1      2     0.0000    63.5600    -3.3000    23.8200 #CH2_sp3 
177      1      2     0.0000    62.7900    -1.9400    23.6400 #CH2_sp3 
178      1      2     0.0000    62.4800    -1.5300    22.2000 #CH2_sp3 
179      1      2     0.0000    63.6000    -1.6100    21.1300 #CH2_sp3 
180      1      2     0.0000    63.1700    -0.7900    19.9200 #CH2_sp3 
181      1      2     0.0000    63.8100    -1.4100    18.6200 #CH2_sp3 
182      1      2     0.0000    63.1800    -2.5900    18.1100 #CH2_sp3 
183      1      2     0.0000    63.7300    -3.2900    16.8500 #CH2_sp3 
184      1      2     0.0000    63.1400    -2.6700    15.5900 #CH2_sp3 
185      1      2     0.0000    63.8700    -2.6400    14.1600 #CH2_sp3 
186      1      2     0.0000    63.5500    -1.2000    13.4900 #CH2_sp3 
187      1      2     0.0000    64.0900    -1.1200    12.0700 #CH2_sp3 
188      1      2     0.0000    63.4700    -2.0900    11.0500 #CH2_sp3 
189      1      2     0.0000    64.2300    -1.9900     9.7800 #CH2_sp3 
190      1      2     0.0000    64.1200    -0.5700     9.0800 #CH2_sp3 
191      1      2     0.0000    64.5800    -0.5600     7.6500 #CH2_sp3 
192      1      2     0.0000    64.2400     0.6700     6.9200 #CH2_sp3 
193      1      2     0.0000    64.9800     1.0700     5.7100 #CH2_sp3 
194      1      2     0.0000    64.0000     0.8400     4.5000 #CH2_sp3 
195      1      2     0.0000    64.4600     1.5600     3.1600 #CH2_sp3 
196      1      2     0.0000    63.4800     1.4900     2.0000 #CH2_sp3 
197      1      2     0.0000    62.1200     2.1600     2.1900 #CH2_sp3 
198      1      2     0.0000    62.1800     3.6100     2.4200 #CH2_sp3 
199      1      2     0.0000    60.9600     4.3800     1.9800 #CH2_sp3 
200      1      2     0.0000    61.0800     5.9200     2.3400 #CH2_sp3 
201      1      2     0.0000    59.9200     6.7800     2.2000 #CH2_sp3 
202      1      2     0.0000    59.1300     6.5000     0.9500 #CH2_sp3 
203      1      2     0.0000    59.9700     6.8900    -0.3500 #CH2_sp3 
204      1      1     0.0000    60.1800     8.4700    -0.6800 #CH3_sp3 
205      2      1     0.0000    77.9000    -2.9500    45.2000 #CH3_sp3 
206      2      2     0.0000    77.9700    -4.1900    44.4100 #CH2_sp3 
207      2      2     0.0000    79.2500    -3.9800    43.5000 #CH2_sp3 
208      2      2     0.0000    79.5400    -5.0700    42.5000 #CH2_sp3 
209      2      2     0.0000    81.0000    -5.3300    42.0100 #CH2_sp3 
210      2      2     0.0000    81.6100    -4.3500    41.0400 #CH2_sp3 
211      2      2     0.0000    83.1800    -4.6500    40.8300 #CH2_sp3 
212      2      2     0.0000    83.4400    -5.6200    39.6400 #CH2_sp3 
213      2      2     0.0000    84.8400    -6.1700    39.8700 #CH2_sp3 
214      2      2     0.0000    85.2000    -7.3400    38.9700 #CH2_sp3 
215      2      2     0.0000    84.3200    -8.7100    39.2800 #CH2_sp3 
216      2      2     0.0000    83.4600    -9.1900    38.0800 #CH2_sp3 
217      2      2     0.0000    82.7700   -10.6300    38.0000 #CH2_sp3 
218      2      2     0.0000    83.7600   -11.8400    37.9600 #CH2_sp3 
219      2      2     0.0000    83.1200   -13.1900    38.2900 #CH2_sp3 
220      2      2     0.0000    82.7500   -13.2300    39.8300 #CH2_sp3 
221      2      2     0.0000    82.5500   -14.6100    40.4400 #CH2_sp3 
222      2      2     0.0000    83.8800   -15.5100    40.4500 #CH2_sp3 
223      2      2     0.0000    83.5200   -17.0000    40.6100 #CH2_sp3 
224      2      2     0.0000    84.6000   -18.0800    40.8200 #CH2_sp3 
225      2      2     0.0000    84.5300   -18.7000    42.2800 #CH2_sp3 
226      2      2     0.0000    83.5500   -19.9500    42.7300 #CH2_sp3 
227      2      2     0.0000    83.3800   -21.3100    42.0800 #CH2_sp3 
228      2      2     0.0000    82.3200   -22.3000    42.8500 #CH2_sp3 
229      2      2     0.0000    83.0200   -23.0900    44.1300 #CH2_sp3 
230      2      2     0.0000    84.4800   -23.6500    43.9600 #CH2_sp3 
231      2      2     0.0000    84.9000   -24.8000    44.9400 #CH2_sp3 
232      2      2     0.0000    84.7300   -24.6500    46.4700 #CH2_sp3 
233      2      2     0.0000    85.0300   -23.3200    47.2200 #CH2_sp3 
234      2      2     0.0000    84.4400   -23.1100    48.5900 #CH2_sp3 
235      2      2     0.0000    84.6300   -24.1300    49.7600 #CH2_sp3 
236      2      2     0.0000    83.9100   -23.6500    51.0200 #CH2_sp3 
237      2      2     0.0000    83.8000   -24.6700    52.1100 #CH2_sp3 
238      2      2     0.0000    83.1200   -23.9800    53.3600 #CH2_sp3 
239      2      2     0.0000    84.0200   -22.8300    53.9700 #CH2_sp3 
240      2      2     0.0000    83.9100   -22.7000    55.5700 #CH2_sp3 
241      2      2     0.0000    82.5200   -22.5700    56.1700 #CH2_sp3 
242      2      2     0.0000    81.8800   -21.2300    55.9500 #CH2_sp3 
243      2      2     0.0000    80.7100   -20.9900    56.9100 #CH2_sp3 
244      2      2     0.0000    80.1800   -19.5400    56.5300 #CH2_sp3 
245      2      2     0.0000    78.7800   -19.4200    57.1100 #CH2_sp3 
246      2      2     0.0000    78.3300   -17.9900    56.9700 #CH2_sp3 
247      2      2     0.0000    77.4600   -17.4600    58.1300 #CH2_sp3 
248      2      2     0.0000    76.2200   -18.3900    58.3000 #CH2_sp3 
249      2      2     0.0000    75.0300   -17.6100    58.9300 #CH2_sp3 
250      2      2     0.0000    73.6800   -18.3500    58.9300 #CH2_sp3 
251      2      2     0.0000    72.6800   -17.3900    59.5100 #CH2_sp3 
252      2      2     0.0000    71.2600   -17.6700    59.5200 #CH2_sp3 
253      2      2     0.0000    70.2600   -16.5100    59.6600 #CH2_sp3 
254      2      2     0.0000    68.9700   -16.6800    58.9000 #CH2_sp3 
255      2      2     0.0000    67.7800   -15.7600    59.2200 #CH2_sp3 
256      2      2     0.0000    66.6800   -15.9300    58.2200 #CH2_sp3 
257      2      2     0.0000    65.3200   -15.5700    58.8300 #CH2_sp3 
258      2      2     0.0000    65.1600   -14.2100    59.4800 #CH2_sp3 
259      2      2     0.0000    63.6600   -13.9800    59.9200 #CH2_sp3 
260      2      2     0.0000    63.2200   -14.9000    61.0900 #CH2_sp3 
261      2      2     0.0000    61.7900   -15.1100    61.4000 #CH2_sp3 
262      2      2     0.0000    61.6200   -15.7900    62.7300 #CH2_sp3 
263      2      2     0.0000    60.1600   -16.1600    63.1600 #CH2_sp3 
264      2      2     0.0000    59.2300   -15.0200    63.6200 #CH2_sp3 
265      2      2     0.0000    57.9000   -15.2600    64.3700 #CH2_sp3 
266      2      2     0.0000    56.9800   -16.3800    64.0900 #CH2_sp3 
267      2      2     0.0000    55.6500   -16.5000    64.9100 #CH2_sp3 
268      2      2     0.0000    54.9800   -17.7800    64.3600 #CH2_sp3 
269      2      2     0.0000    54.0400   -17.6200    63.1900 #CH2_sp3 
270      2      2     0.0000    52.8500   -16.8300    63.5100 #CH2_sp3 
271      2      2     0.0000    51.9700   -16.6100    62.2400 #CH2_sp3 
272      2      2     0.0000    50.9000   -15.4300    62.3400 #CH2_sp3 
273      2      2     0.0000    49.6800   -15.9500    63.1400 #CH2_sp3 
274      2      2     0.0000    48.7800   -17.0400    62.5300 #CH2_sp3 
275      2      2     0.0000    48.2400   -16.5600    61.1000 #CH2_sp3 
276      2      2     0.0000    47.7400   -15.2000    61.1800 #CH2_sp3 
277      2      2     0.0000    46.4800   -14.9800    62.1000 #CH2_sp3 
278      2      2     0.0000    46.2900   -13.5200    62.6100 #CH2_sp3 
279      2      2     0.0000    44.9600   -13.4100    63.4500 #CH2_sp3 
280      2      2     0.0000    44.7000   -11.9600    63.9400 #CH2_sp3 
281      2      2     0.0000    43.6900   -12.1100    65.0800 #CH2_sp3 
282      2      2     0.0000    43.4900   -10.9600    66.1000 #CH2_sp3 
283      2      2     0.0000    42.0100   -10.9700    66.5000 #CH2_sp3 
284      2      2     0.0000    41.8100   -10.0200    67.6400 #CH2_sp3 
285      2      2     0.0000    40.3100   -10.0900    68.0100 #CH2_sp3 
286      2      2     0.0000    39.8100   -11.5300    68.5400 #CH2_sp3 
287      2      2     0.0000    40.4500   -12.1100    69.8100 #CH2_sp3 
288      2      2     0.0000    39.9500   -11.4700    71.1900 #CH2_sp3 
289      2      2     0.0000    40.6700   -10.1800    71.6400 #CH2_sp3 
290      2      2     0.0000    42.2000   -10.1400    71.6800 #CH2_sp3 
291      2      2     0.0000    42.8600    -8.7700    71.9200 #CH2_sp3 
292      2      2     0.0000    42.6600    -7.7100    70.8400 #CH2_sp3 
293      2      2     0.0000    43.7900    -6.6800    70.7700 #CH2_sp3 
294      2      2     0.0000    43.4600    -5.4400    70.0700 #CH2_sp3 
295      2      2     0.0000    44.6200    -4.4300    70.1200 #CH2_sp3 
296      2      2     0.0000    44.3800    -3.3000    69.1400 #CH2_sp3 
297      2      2     0.0000    45.5100    -2.1400    69.1800 #CH2_sp3 
298      2      2     0.0000    45.3200    -1.0300    68.1000 #CH2_sp3 
299      2      2     0.0000    44.3400    -0.0100    68.5000 #CH2_sp3 
300      2      2     0.0000    43.7000     0.8200    67.4400 #CH2_sp3 
301      2      2     0.0000    42.6900     1.7500    68.2900 #CH2_sp3 
302      2      2     0.0000    41.9200     2.6500    67.2900 #CH2_sp3 
303      2      2     0.0000    40.5600     3.1700    67.8800 #CH2_sp3 
304      2      2     0.0000    40.5000     3.9900    69.1200 #CH2_sp3 
305      2      2     0.0000    39.1500     4.8200    69.3200 #CH2_sp3 
306      2      2     0.0000    39.2100     6.2100    68.5200 #CH2_sp3 
307      2      2     0.0000    38.0100     7.0700    68.8200 #CH2_sp3 
308      2      2     0.0000    38.4300     8.4200    68.0800 #CH2_sp3 
309      2      2     0.0000    37.1700     9.2000    68.0100 #CH2_sp3 
310      2      2     0.0000    37.2700    10.6300    67.6700 #CH2_sp3 
311      2      2     0.0000    35.8100    11.1900    67.4500 #CH2_sp3 
312      2      2     0.0000    34.9900    10.9900    68.8100 #CH2_sp3 
313      2      2     0.0000    33.5500    11.6100    68.8300 #CH2_sp3 
314      2      2     0.0000    33.3000    13.1900    68.9400 #CH2_sp3 
315      2      2     0.0000    33.9000    13.6700    70.2700 #CH2_sp3 
316      2      2     0.0000    32.8400    13.7900    71.3800 #CH2_sp3 
317      2      2     0.0000    33.3100    14.2600    72.7400 #CH2_sp3 
318      2      2     0.0000    34.3300    13.4700    73.6100 #CH2_sp3 
319      2      2     0.0000    34.4700    14.1100    75.0700 #CH2_sp3 
320      2      2     0.0000    35.6900    13.5200    75.6400 #CH2_sp3 
321      2      2     0.0000    36.1200    13.9800    77.0600 #CH2_sp3 
322      2      2     0.0000    35.1000    13.8400    78.2300 #CH2_sp3 
323      2      2     0.0000    34.5300    12.4400    78.6200 #CH2_sp3 
324      2      2     0.0000    33.0000    12.4600    78.5700 #CH2_sp3 
325      2      2     0.0000    32.4300    11.0300    78.2500 #CH2_sp3 
326      2      2     0.0000    30.9300    10.9900    78.5200 #CH2_sp3 
327      2      2     0.0000    29.9400     9.8400    78.2900 #CH2_sp3 
328      2      2     0.0000    28.5100    10.2100    78.4300 #CH2_sp3 
329      2      2     0.0000    27.5600     9.0400    78.1400 #CH2_sp3 
330      2      2     0.0000    27.0300     8.8300    76.6900 #CH2_sp3 
331      2      2     0.0000    25.5700     8.8300    76.5100 #CH2_sp3 
332      2      2     0.0000    24.8700     7.6300    77.1700 #CH2_sp3 
333      2      2     0.0000    23.3700     7.9900    77.3100 #CH2_sp3 
334      2      2     0.0000    22.6400     8.4100    76.0300 #CH2_sp3 
335      2      2     0.0000    22.1000     7.3300    75.1100 #CH2_sp3 
336      2      2     0.0000    21.4600     7.8700    73.7500 #CH2_sp3 
337      2      2     0.0000    22.4200     8.2800    72.5800 #CH2_sp3 
338      2      2     0.0000    21.4100     9.0800    71.6600 #CH2_sp3 
339      2      2     0.0000    22.0800     9.6500    70.3200 #CH2_sp3 
340      2      2     0.0000    22.2800    11.1600    70.4800 #CH2_sp3 
341      2      2     0.0000    22.4500    11.8700    69.1200 #CH2_sp3 
342      2      2     0.0000    21.2600    12.6700    68.3900 #CH2_sp3 
343      2      2     0.0000    21.8000    13.2900    67.1600 #CH2_sp3 
344      2      2     0.0000    20.8900    14.3500    66.5300 #CH2_sp3 
345      2      2     0.0000    19.5200    13.9200    65.9700 #CH2_sp3 
346      2      2     0.0000    19.4400    12.7500    65.0700 #CH2_sp3 
347      2      2     0.0000    20.2600    12.6400    63.8100 #CH2_sp3 
348      2      2     0.0000    20.0600    13.9000    62.9500 #CH2_sp3 
349      2      2     0.0000    21.3200    14.2400    62.0900 #CH2_sp3 
350      2      2     0.0000    21.9400    13.0600    61.2000 #CH2_sp3 
351      2      2     0.0000    23.0800    13.4000    60.2800 #CH2_sp3 
352      2      2     0.0000    22.7400    14.3100    59.0100 #CH2_sp3 
353      2      2     0.0000    22.9800    15.8700    59.2300 #CH2_sp3 
354      2      2     0.0000    24.5500    16.3700    59.5600 #CH2_sp3 
355      2      2     0.0000    24.6900    18.0200    59.7900 #CH2_sp3 
356      2      2     0.0000    23.9500    19.1200    58.9200 #CH2_sp3 
357      2      2     0.0000    23.8100    18.9300    57.3900 #CH2_sp3 
358      2      2     0.0000    22.6500    19.7400    56.7400 #CH2_sp3 
359      2      2     0.0000    21.1100    19.3700    56.9700 #CH2_sp3 
360      2      2     0.0000    20.2300    20.5100    56.5100 #CH2_sp3 
361      2      2     0.0000    18.7900    20.0400    56.3300 #CH2_sp3 
362      2      2     0.0000    17.8300    21.1800    56.1600 #CH2_sp3 
363      2      2     0.0000    17.9000    21.9900    54.8700 #CH2_sp3 
364      2      2     0.0000    16.6400    22.7400    54.6000 #CH2_sp3 
365      2      2     0.0000    16.7800    23.2500    53.0700 #CH2_sp3 
366      2      2     0.0000    16.3900    22.2200    51.9300 #CH2_sp3 
367      2      2     0.0000    17.1500    22.5600    50.6400 #CH2_sp3 
368      2      2     0.0000    16.8600    21.5200    49.4800 #CH2_sp3 
369      2      2     0.0000    17.6000    21.9600    48.2900 #CH2_sp3 
370      2      2     0.0000    19.0900    21.9200    48.2300 #CH2_sp3 
371      2      2     0.0000    19.6000    22.3700    46.8500 #CH2_sp3 
372      2      2     0.0000    20.1400    23.8000    46.8600 #CH2_sp3 
373      2      2     0.0000    20.3400    24.3600    45.3900 #CH2_sp3 
374      2      2     0.0000    19.0900    24.6800    44.5700 #CH2_sp3 
375      2      2     0.0000    18.5600    26.0700    45.0300 #CH2_sp3 
376      2      2     0.0000    17.1400    26.2200    44.5800 #CH2_sp3 
377      2      2     0.0000    16.1700    25.4000    45.4400 #CH2_sp3 
378      2      2     0.0000    14.6500    25.7500    45.3500 #CH2_sp3 
379      2      2     0.0000    13.7600    24.6600    45.9200 #CH2_sp3 
380      2      2     0.0000    13.9100    24.4400    47.3700 #CH2_sp3 
381      2      2     0.0000    13.7800    25.8300    48.2100 #CH2_sp3 
382      2      2     0.0000    14.1900    25.8200    49.6900 #CH2_sp3 
383      2      2     0.0000    14.2500    27.3100    50.2700 #CH2_sp3 
384      2      2     0.0000    15.2300    28.2300    49.5500 #CH2_sp3 
385      2      2     0.0000    16.6900    27.8900    49.5300 #CH2_sp3 
386      2      2     0.0000    17.6500    28.8700    48.9200 #CH2_sp3 
387      2      2     0.0000    18.9900    28.2000    48.7300 #CH2_sp3 
388      2      2     0.0000    19.9500    28.9200    47.8500 #CH2_sp3 
389      2      2     0.0000    20.5400    30.1800    48.4300 #CH2_sp3 
390      2      2     0.0000    22.0000    29.9100    49.1000 #CH2_sp3 
391      2      2     0.0000    22.8400    31.1100    49.3800 #CH2_sp3 
392      2      2     0.0000    22.5100    32.2400    48.4300 #CH2_sp3 
393      2      2     0.0000    23.6000    33.3100    48.3700 #CH2_sp3 
394      2      2     0.0000    23.2100    34.4700    47.4000 #CH2_sp3 
395      2      2     0.0000    24.3000    35.4400    47.3000 #CH2_sp3 
396      2      2     0.0000    24.2000    36.3400    46.0700 #CH2_sp3 
397      2      2     0.0000    25.2200    37.4700    46.1000 #CH2_sp3 
398      2      2     0.0000    24.8100    38.5200    47.1600 #CH2_sp3 
399      2      2     0.0000    25.0900    40.0100    46.8800 #CH2_sp3 
400      2      2     0.0000    26.4500    40.2900    46.3300 #CH2_sp3 
401      2      2     0.0000    26.5900    41.7800    46.1900 #CH2_sp3 
402      2      2     0.0000    27.9900    42.4600    46.0300 #CH2_sp3 
403      2      2     0.0000    28.4200    42.4300    44.5500 #CH2_sp3 
404      2      2     0.0000    29.7800    43.2100    44.1200 #CH2_sp3 
405      2      2     0.0000    29.6300    44.7000    44.2500 #CH2_sp3 
406      2      2     0.0000    30.7700    45.5600    43.7500 #CH2_sp3 
407      2      2     0.0000    30.5900    47.0600    43.7400 #CH2_sp3 
408      2      1     0.0000    29.5000    47.6800    42.8300 #CH3_sp3 

Bonds
